LAMMPS data file via write_data, version 26 Jan 2017, timestep = 5000000

12 atoms
12 atom types
11 bonds
1 bond types

-2.5000000000000000e+01 2.5000000000000000e+01 xlo xhi
-2.5000000000000000e+01 2.5000000000000000e+01 ylo yhi
-2.5000000000000000e+01 2.5000000000000000e+01 zlo zhi

Masses

1 1
2 1
3 1
4 1
5 1
6 1
7 1
8 1
9 1
10 1
11 1
12 1

Atoms # bond

3 1 3 7.5363768261413115e+00 1.7318089394070000e+00 -2.9197233362003189e-01 0 0 0
1 1 1 6.0688646623852058e+00 2.4198134529511890e+00 -4.4626617530130591e-01 0 0 0
2 1 2 6.9896784264127438e+00 2.6440962488736881e+00 -3.7126106558083061e-01 0 0 0
7 1 7 6.5322356134869368e+00 3.3343099132358311e-01 8.6176327827013821e-01 0 0 0
6 1 6 6.2365914769712756e+00 1.2940580640655062e+00 8.0856280079920773e-01 0 0 0
4 1 4 7.7898408440940550e+00 1.5439795167011143e+00 7.6975552072123410e-01 0 0 0
12 1 12 5.6554177556418965e+00 -1.0275761659924434e+00 1.3520298359839571e+00 0 0 0
5 1 5 6.8927826324395056e+00 1.8876220609160639e+00 1.2777979575922467e+00 0 0 0
11 1 11 5.1851856146413748e+00 -2.8768330691903582e-01 1.7125030787933817e+00 0 0 0
8 1 8 7.0612031126575161e+00 2.3081008978649614e-01 1.6490736506924426e+00 0 0 0
10 1 10 5.5607476253305297e+00 5.7343761907925717e-01 2.2095550309567384e+00 0 0 0
9 1 9 6.4910754104498052e+00 6.5620249001282049e-01 2.4684584207483686e+00 0 0 0

Velocities

3 -8.4188037634777046e-01 1.1233000375403301e+00 -2.8829364158084725e+00
1 -5.4282209052266117e-01 -1.0754421662489382e+00 -9.2693066137613922e-01
2 -9.1105580098472339e-01 1.0714300833861248e+00 8.3170707077860218e-01
7 5.0055303974346634e-02 -2.8607849390256807e-01 4.0094384471415140e-01
6 1.1056080499039118e+00 1.3904363823356278e+00 1.2805164860999665e+00
4 7.5474351379317781e-02 4.1122156060394210e-01 3.8764948237560232e-01
12 4.2331987123377192e-02 -2.1946262854981757e+00 5.6436954922425830e-01
5 -5.0967804673585537e-01 -7.5193696595447126e-02 1.5220672546784419e-01
11 2.8416539570706605e+00 -1.4876535827127715e-01 -2.9262402737632559e-01
8 -2.3463815841996258e-01 -9.2566842612964731e-02 4.6272551698329045e-01
10 8.5871839032365682e-01 -5.1917699001461504e-01 -4.9595845329038318e-01
9 -1.9337675667621677e+00 3.9546176927839799e-01 5.1833088220822399e-01

Bonds

1 1 3 4
2 1 1 2
3 1 2 3
4 1 7 8
5 1 6 7
6 1 4 5
7 1 5 6
8 1 11 12
9 1 8 9
10 1 10 11
11 1 9 10
